{ "table": [
{"AtomicNumber":1,"Symbol":"H","Element":"Hydrogen","Origin of name[1]":"the Greek'hydro' and 'genes' meaningwater-forming","Group":1,"Period":1,"AtomicWeight":"1.0082 3 4 9","Density":"0.00008988","MeltingPoint":"14.01","BoilingPoint":"20.28","Specific Heat":"14.304","Category":"Polyatomic nonmetal"},
{"AtomicNumber":2,"Symbol":"He","Element":"Helium","Origin of name[1]":"the Greek 'helios' meaning sun","Group":18,"Period":1,"AtomicWeight":"4.002602(2)2 4","Density":"0.0001785","MeltingPoint":"0.956","BoilingPoint":"4.22","Specific Heat":"5.193","Category":"Noble gas"},
{"AtomicNumber":3,"Symbol":"Li","Element":"Lithium","Origin of name[1]":"the Greek 'lithos' meaningstone","Group":1,"Period":2,"AtomicWeight":"6.942 3 4 5 9","Density":"0.534","MeltingPoint":"453.69","BoilingPoint":"1560","Specific Heat":"3.582","Category":"Alkali metal"},
{"AtomicNumber":4,"Symbol":"Be","Element":"Beryllium","Origin of name[1]":"the Greek name for beryl, 'beryllo'","Group":2,"Period":2,"AtomicWeight":"9.012182(3)","Density":"1.85","MeltingPoint":"1560","BoilingPoint":"2742","Specific Heat":"1.825","Category":"Alkaline earth metal"},
{"AtomicNumber":5,"Symbol":"B","Element":"Boron","Origin of name[1]":"the Arabic'buraq', which was the name for borax","Group":13,"Period":2,"AtomicWeight":"10.812 3 4 9","Density":"2.34","MeltingPoint":"2349","BoilingPoint":"4200","Specific Heat":"1.026","Category":"Metalloid"},
{"AtomicNumber":6,"Symbol":"C","Element":"Carbon","Origin of name[1]":"the Latin'carbo', meaningcharcoal","Group":14,"Period":2,"AtomicWeight":"12.0112 4 9","Density":"2.267","MeltingPoint":"3800","BoilingPoint":"4300","Specific Heat":"0.709","Category":"Polyatomic nonmetal"},
{"AtomicNumber":7,"Symbol":"N","Element":"Nitrogen","Origin of name[1]":"the Greek 'nitron' and 'genes' meaningnitre-forming","Group":15,"Period":2,"AtomicWeight":"14.0072 4 9","Density":"0.0012506","MeltingPoint":"63.15","BoilingPoint":"77.36","Specific Heat":"1.04","Category":"Diatomic nonmetal"},
{"AtomicNumber":8,"Symbol":"O","Element":"Oxygen","Origin of name[1]":"the Greek 'oxy' and 'genes' meaningacid-forming","Group":16,"Period":2,"AtomicWeight":"15.9992 4 9","Density":"0.001429","MeltingPoint":"54.36","BoilingPoint":"90.2","Specific Heat":"0.918","Category":"Diatomic nonmetal"},
{"AtomicNumber":9,"Symbol":"F","Element":"Fluorine","Origin of name[1]":"the Latin 'fluere', meaning to flow","Group":17,"Period":2,"AtomicWeight":"18.9984032(5)","Density":"0.001696","MeltingPoint":"53.53","BoilingPoint":"85.03","Specific Heat":"0.824","Category":"Diatomic nonmetal"},
{"AtomicNumber":10,"Symbol":"Ne","Element":"Neon","Origin of name[1]":"the Greek 'neos', meaning new","Group":18,"Period":2,"AtomicWeight":"20.1797(6)2 3","Density":"0.0008999","MeltingPoint":"24.56","BoilingPoint":"27.07","Specific Heat":"1.03","Category":"Noble gas"},
{"AtomicNumber":11,"Symbol":"Na","Element":"Sodium","Origin of name[1]":"the Englishword soda(natrium in Latin)[2]","Group":1,"Period":3,"AtomicWeight":"22.98976928(2)","Density":"0.971","MeltingPoint":"370.87","BoilingPoint":"1156","Specific Heat":"1.228","Category":"Alkali metal"},
{"AtomicNumber":12,"Symbol":"Mg","Element":"Magnesium","Origin of name[1]":"Magnesia, a district of EasternThessaly inGreece","Group":2,"Period":3,"AtomicWeight":"24.3059","Density":"1.738","MeltingPoint":"923","BoilingPoint":"1363","Specific Heat":"1.023","Category":"Alkaline earth metal"},
{"AtomicNumber":13,"Symbol":"Al","Element":"Aluminium","Origin of name[1]":"the Latin name for alum, 'alumen' meaningbitter salt","Group":13,"Period":3,"AtomicWeight":"26.9815386(8)","Density":"2.698","MeltingPoint":"933.47[3]","BoilingPoint":"2792","Specific Heat":"0.897","Category":"Poor metal"},
{"AtomicNumber":14,"Symbol":"Si","Element":"Silicon","Origin of name[1]":"the Latin 'silex' or 'silicis', meaning flint","Group":14,"Period":3,"AtomicWeight":"28.0854 9","Density":"2.3296","MeltingPoint":"1687","BoilingPoint":"3538","Specific Heat":"0.705","Category":"Metalloid"},
{"AtomicNumber":15,"Symbol":"P","Element":"Phosphorus","Origin of name[1]":"the Greek 'phosphoros', meaningbringer of light","Group":15,"Period":3,"AtomicWeight":"30.973762(2)","Density":"1.82","MeltingPoint":"317.3","BoilingPoint":"550","Specific Heat":"0.769","Category":"Polyatomic nonmetal"},
{"AtomicNumber":16,"Symbol":"S","Element":"Sulfur","Origin of name[1]":"Either from the Sanskrit'sulvere', or the Latin 'sulfurium', both names for sulfur[2]","Group":16,"Period":3,"AtomicWeight":"32.062 4 9","Density":"2.067","MeltingPoint":"388.36","BoilingPoint":"717.87","Specific Heat":"0.71","Category":"Polyatomic nonmetal"},
{"AtomicNumber":17,"Symbol":"Cl","Element":"Chlorine","Origin of name[1]":"the Greek 'chloros', meaninggreenish yellow","Group":17,"Period":3,"AtomicWeight":"35.452 3 4 9","Density":"0.003214","MeltingPoint":"171.6","BoilingPoint":"239.11","Specific Heat":"0.479","Category":"Diatomic nonmetal"},
{"AtomicNumber":18,"Symbol":"Ar","Element":"Argon","Origin of name[1]":"the Greek, 'argos', meaning idle","Group":18,"Period":3,"AtomicWeight":"39.948(1)2 4","Density":"0.0017837","MeltingPoint":"83.8","BoilingPoint":"87.3","Specific Heat":"0.52","Category":"Noble gas"},
{"AtomicNumber":19,"Symbol":"K","Element":"Potassium","Origin of name[1]":"the English word potash(kalium in Latin)[2]","Group":1,"Period":4,"AtomicWeight":"39.0983(1)","Density":"0.862","MeltingPoint":"336.53","BoilingPoint":"1032","Specific Heat":"0.757","Category":"Alkali metal"},
{"AtomicNumber":20,"Symbol":"Ca","Element":"Calcium","Origin of name[1]":"the Latin 'calx' meaning lime","Group":2,"Period":4,"AtomicWeight":"40.078(4)2","Density":"1.54","MeltingPoint":"1115","BoilingPoint":"1757","Specific Heat":"0.647","Category":"Alkaline earth metal"},
{"AtomicNumber":21,"Symbol":"Sc","Element":"Scandium","Origin of name[1]":"Scandinavia(with the Latin nameScandia)","Group":3,"Period":4,"AtomicWeight":"44.955912(6)","Density":"2.989","MeltingPoint":"1814","BoilingPoint":"3109","Specific Heat":"0.568","Category":"Transition metal"},
{"AtomicNumber":22,"Symbol":"Ti","Element":"Titanium","Origin of name[1]":"Titans, the sons of the Earth goddess of Greek mythology","Group":4,"Period":4,"AtomicWeight":"47.867(1)","Density":"4.54","MeltingPoint":"1941","BoilingPoint":"3560","Specific Heat":"0.523","Category":"Transition metal"},
{"AtomicNumber":23,"Symbol":"V","Element":"Vanadium","Origin of name[1]":"Vanadis, an old Norsename for the Scandinavian goddessFreyja","Group":5,"Period":4,"AtomicWeight":"50.9415(1)","Density":"6.11","MeltingPoint":"2183","BoilingPoint":"3680","Specific Heat":"0.489","Category":"Transition metal"},
{"AtomicNumber":24,"Symbol":"Cr","Element":"Chromium","Origin of name[1]":"the Greek 'chroma', meaningcolour","Group":6,"Period":4,"AtomicWeight":"51.9961(6)","Density":"7.15","MeltingPoint":"2180","BoilingPoint":"2944","Specific Heat":"0.449","Category":"Transition metal"},
{"AtomicNumber":25,"Symbol":"Mn","Element":"Manganese","Origin of name[1]":"Either the Latin 'magnes', meaningmagnet or from theblack magnesium oxide, 'magnesia nigra'","Group":7,"Period":4,"AtomicWeight":"54.938045(5)","Density":"7.44","MeltingPoint":"1519","BoilingPoint":"2334","Specific Heat":"0.479","Category":"Transition metal"},
{"AtomicNumber":26,"Symbol":"Fe","Element":"Iron","Origin of name[1]":"the Anglo-Saxon nameiren (ferrumin Latin)","Group":8,"Period":4,"AtomicWeight":"55.845(2)","Density":"7.874","MeltingPoint":"1811","BoilingPoint":"3134","Specific Heat":"0.449","Category":"Transition metal"},
{"AtomicNumber":27,"Symbol":"Co","Element":"Cobalt","Origin of name[1]":"the Germanword 'kobald', meaninggoblin","Group":9,"Period":4,"AtomicWeight":"58.933195(5)","Density":"8.86","MeltingPoint":"1768","BoilingPoint":"3200","Specific Heat":"0.421","Category":"Transition metal"},
{"AtomicNumber":28,"Symbol":"Ni","Element":"Nickel","Origin of name[1]":"the shortened of the German 'kupfernickel' meaning either devil's copper or St. Nicholas's copper","Group":10,"Period":4,"AtomicWeight":"58.6934(4)","Density":"8.912","MeltingPoint":"1728","BoilingPoint":"3186","Specific Heat":"0.444","Category":"Transition metal"},
{"AtomicNumber":29,"Symbol":"Cu","Element":"Copper","Origin of name[1]":"the Old English name coperin turn derived from the Latin 'Cyprium aes', meaning a metal fromCyprus","Group":11,"Period":4,"AtomicWeight":"63.546(3)4","Density":"8.96","MeltingPoint":"1357.77[3]","BoilingPoint":"2835","Specific Heat":"0.385","Category":"Transition metal"},
{"AtomicNumber":30,"Symbol":"Zn","Element":"Zinc","Origin of name[1]":"the German, 'zinc', which may in turn be derived from thePersian word 'sing', meaningstone","Group":12,"Period":4,"AtomicWeight":"65.38(2)","Density":"7.134","MeltingPoint":"692.88","BoilingPoint":"1180","Specific Heat":"0.388","Category":"Transition metal"},
{"AtomicNumber":31,"Symbol":"Ga","Element":"Gallium","Origin of name[1]":"France (with the Latin name Gallia)","Group":13,"Period":4,"AtomicWeight":"69.723(1)","Density":"5.907","MeltingPoint":"302.9146","BoilingPoint":"2477","Specific Heat":"0.371","Category":"Poor metal"},
{"AtomicNumber":32,"Symbol":"Ge","Element":"Germanium","Origin of name[1]":"Germany(with the Latin nameGermania)","Group":14,"Period":4,"AtomicWeight":"72.630(8)","Density":"5.323","MeltingPoint":"1211.4","BoilingPoint":"3106","Specific Heat":"0.32","Category":"Metalloid"},
{"AtomicNumber":33,"Symbol":"As","Element":"Arsenic","Origin of name[1]":"the Greek name 'arsenikon' for the yellow pigmentorpiment","Group":15,"Period":4,"AtomicWeight":"74.92160(2)","Density":"5.776","MeltingPoint":"1090 7","BoilingPoint":"887","Specific Heat":"0.329","Category":"Metalloid"},
{"AtomicNumber":34,"Symbol":"Se","Element":"Selenium","Origin of name[1]":"Moon (with the Greek nameselene)","Group":16,"Period":4,"AtomicWeight":"78.96(3)4","Density":"4.809","MeltingPoint":"453","BoilingPoint":"958","Specific Heat":"0.321","Category":"Polyatomic nonmetal"},
{"AtomicNumber":35,"Symbol":"Br","Element":"Bromine","Origin of name[1]":"the Greek 'bromos' meaningstench","Group":17,"Period":4,"AtomicWeight":"79.9049","Density":"3.122","MeltingPoint":"265.8","BoilingPoint":"332","Specific Heat":"0.474","Category":"Diatomic nonmetal"},
{"AtomicNumber":36,"Symbol":"Kr","Element":"Krypton","Origin of name[1]":"the Greek 'kryptos', meaninghidden","Group":18,"Period":4,"AtomicWeight":"83.798(2)2 3","Density":"0.003733","MeltingPoint":"115.79","BoilingPoint":"119.93","Specific Heat":"0.248","Category":"Noble gas"},
{"AtomicNumber":37,"Symbol":"Rb","Element":"Rubidium","Origin of name[1]":"the Latin 'rubidius', meaningdeepest red","Group":1,"Period":5,"AtomicWeight":"85.4678(3)2","Density":"1.532","MeltingPoint":"312.46","BoilingPoint":"961","Specific Heat":"0.363","Category":"Alkali metal"},
{"AtomicNumber":38,"Symbol":"Sr","Element":"Strontium","Origin of name[1]":"Strontian, a small town inScotland","Group":2,"Period":5,"AtomicWeight":"87.62(1)2 4","Density":"2.64","MeltingPoint":"1050","BoilingPoint":"1655","Specific Heat":"0.301","Category":"Alkaline earth metal"},
{"AtomicNumber":39,"Symbol":"Y","Element":"Yttrium","Origin of name[1]":"Ytterby,Sweden","Group":3,"Period":5,"AtomicWeight":"88.90585(2)","Density":"4.469","MeltingPoint":"1799","BoilingPoint":"3609","Specific Heat":"0.298","Category":"Transition metal"},
{"AtomicNumber":40,"Symbol":"Zr","Element":"Zirconium","Origin of name[1]":"the Persian 'zargun', meaning gold coloured","Group":4,"Period":5,"AtomicWeight":"91.224(2)2","Density":"6.506","MeltingPoint":"2128","BoilingPoint":"4682","Specific Heat":"0.278","Category":"Transition metal"},
{"AtomicNumber":41,"Symbol":"Nb","Element":"Niobium","Origin of name[1]":"Niobe, daughter of king Tantalusfrom Greek mythology","Group":5,"Period":5,"AtomicWeight":"92.90638(2)","Density":"8.57","MeltingPoint":"2750","BoilingPoint":"5017","Specific Heat":"0.265","Category":"Transition metal"},
{"AtomicNumber":42,"Symbol":"Mo","Element":"Molybdenum","Origin of name[1]":"the Greek 'molybdos' meaning lead","Group":6,"Period":5,"AtomicWeight":"95.96(2)2","Density":"10.22","MeltingPoint":"2896","BoilingPoint":"4912","Specific Heat":"0.251","Category":"Transition metal"},
{"AtomicNumber":43,"Symbol":"Tc","Element":"Technetium","Origin of name[1]":"the Greek 'tekhnetos' meaningartificial","Group":7,"Period":5,"AtomicWeight":"[98]1","Density":"11.5","MeltingPoint":"2430","BoilingPoint":"4538","Specific Heat":"–","Category":"Transition metal"},
{"AtomicNumber":44,"Symbol":"Ru","Element":"Ruthenium","Origin of name[1]":"Russia (with the Latin nameRuthenia)","Group":8,"Period":5,"AtomicWeight":"101.07(2)2","Density":"12.37","MeltingPoint":"2607","BoilingPoint":"4423","Specific Heat":"0.238","Category":"Transition metal"},
{"AtomicNumber":45,"Symbol":"Rh","Element":"Rhodium","Origin of name[1]":"the Greek 'rhodon', meaningrose coloured","Group":9,"Period":5,"AtomicWeight":"102.90550(2)","Density":"12.41","MeltingPoint":"2237","BoilingPoint":"3968","Specific Heat":"0.243","Category":"Transition metal"},
{"AtomicNumber":46,"Symbol":"Pd","Element":"Palladium","Origin of name[1]":"the then recently-discovered asteroidPallas, considered a planet at the time","Group":10,"Period":5,"AtomicWeight":"106.42(1)2","Density":"12.02","MeltingPoint":"1828.05","BoilingPoint":"3236","Specific Heat":"0.244","Category":"Transition metal"},
{"AtomicNumber":47,"Symbol":"Ag","Element":"Silver","Origin of name[1]":"the Anglo-Saxon namesiolfur(argentum in Latin)[2]","Group":11,"Period":5,"AtomicWeight":"107.8682(2)2","Density":"10.501","MeltingPoint":"1234.93[3]","BoilingPoint":"2435","Specific Heat":"0.235","Category":"Transition metal"},
{"AtomicNumber":48,"Symbol":"Cd","Element":"Cadmium","Origin of name[1]":"the Latin name for the mineral calmine, 'cadmia'","Group":12,"Period":5,"AtomicWeight":"112.411(8)2","Density":"8.69","MeltingPoint":"594.22","BoilingPoint":"1040","Specific Heat":"0.232","Category":"Transition metal"},
{"AtomicNumber":49,"Symbol":"In","Element":"Indium","Origin of name[1]":"the Latin 'indicium', meaningviolet orindigo","Group":13,"Period":5,"AtomicWeight":"114.818(1)","Density":"7.31","MeltingPoint":"429.75","BoilingPoint":"2345","Specific Heat":"0.233","Category":"Poor metal"},
{"AtomicNumber":50,"Symbol":"Sn","Element":"Tin","Origin of name[1]":"the Anglo-Saxon wordtin (stannumin Latin, meaninghard)","Group":14,"Period":5,"AtomicWeight":"118.710(7)2","Density":"7.287","MeltingPoint":"505.08","BoilingPoint":"2875","Specific Heat":"0.228","Category":"Poor metal"},
{"AtomicNumber":51,"Symbol":"Sb","Element":"Antimony","Origin of name[1]":"the Greek 'anti – monos', meaning not alone(stibium in Latin)","Group":15,"Period":5,"AtomicWeight":"121.760(1)2","Density":"6.685","MeltingPoint":"903.78","BoilingPoint":"1860","Specific Heat":"0.207","Category":"Metalloid"},
{"AtomicNumber":52,"Symbol":"Te","Element":"Tellurium","Origin of name[1]":"Earth, the third planet on solar system (with the Latin word tellus)","Group":16,"Period":5,"AtomicWeight":"127.60(3)2","Density":"6.232","MeltingPoint":"722.66","BoilingPoint":"1261","Specific Heat":"0.202","Category":"Metalloid"},
{"AtomicNumber":53,"Symbol":"I","Element":"Iodine","Origin of name[1]":"the Greek 'iodes' meaningviolet","Group":17,"Period":5,"AtomicWeight":"126.90447(3)","Density":"4.93","MeltingPoint":"386.85","BoilingPoint":"457.4","Specific Heat":"0.214","Category":"Diatomic nonmetal"},
{"AtomicNumber":54,"Symbol":"Xe","Element":"Xenon","Origin of name[1]":"the Greek 'xenos' meaningstranger","Group":18,"Period":5,"AtomicWeight":"131.293(6)2 3","Density":"0.005887","MeltingPoint":"161.4","BoilingPoint":"165.03","Specific Heat":"0.158","Category":"Noble gas"},
{"AtomicNumber":55,"Symbol":"Cs","Element":"Caesium","Origin of name[1]":"the Latin 'caesius', meaning sky blue","Group":1,"Period":6,"AtomicWeight":"132.9054519(2)","Density":"1.873","MeltingPoint":"301.59","BoilingPoint":"944","Specific Heat":"0.242","Category":"Alkali metal"},
{"AtomicNumber":56,"Symbol":"Ba","Element":"Barium","Origin of name[1]":"the Greek 'barys', meaningheavy","Group":2,"Period":6,"AtomicWeight":"137.327(7)","Density":"3.594","MeltingPoint":"1000","BoilingPoint":"2170","Specific Heat":"0.204","Category":"Alkaline earth metal"},
{"AtomicNumber":57,"Symbol":"La","Element":"Lanthanum","Origin of name[1]":"the Greek 'lanthanein', meaning to lie hidden","Group":null,"Period":6,"AtomicWeight":"138.90547(7)2","Density":"6.145","MeltingPoint":"1193","BoilingPoint":"3737","Specific Heat":"0.195","Category":"Lan­thanide"},
{"AtomicNumber":58,"Symbol":"Ce","Element":"Cerium","Origin of name[1]":"Ceres, theRoman God of agriculture","Group":null,"Period":6,"AtomicWeight":"140.116(1)2","Density":"6.77","MeltingPoint":"1068","BoilingPoint":"3716","Specific Heat":"0.192","Category":"Lan­thanide"},
{"AtomicNumber":59,"Symbol":"Pr","Element":"Praseodymium","Origin of name[1]":"the Greek 'prasios didymos' meaninggreen twin","Group":null,"Period":6,"AtomicWeight":"140.90765(2)","Density":"6.773","MeltingPoint":"1208","BoilingPoint":"3793","Specific Heat":"0.193","Category":"Lan­thanide"},
{"AtomicNumber":60,"Symbol":"Nd","Element":"Neodymium","Origin of name[1]":"the Greek 'neos didymos' meaning new twin","Group":null,"Period":6,"AtomicWeight":"144.242(3)2","Density":"7.007","MeltingPoint":"1297","BoilingPoint":"3347","Specific Heat":"0.19","Category":"Lan­thanide"},
{"AtomicNumber":61,"Symbol":"Pm","Element":"Promethium","Origin of name[1]":"Prometheusof Greek mythology who stole fire from the Gods and gave it to humans","Group":null,"Period":6,"AtomicWeight":"[145]1","Density":"7.26","MeltingPoint":"1315","BoilingPoint":"3273","Specific Heat":"–","Category":"Lan­thanide"},
{"AtomicNumber":62,"Symbol":"Sm","Element":"Samarium","Origin of name[1]":"Samarskite, the name of the mineral from which it was first isolated","Group":null,"Period":6,"AtomicWeight":"150.36(2)2","Density":"7.52","MeltingPoint":"1345","BoilingPoint":"2067","Specific Heat":"0.197","Category":"Lan­thanide"},
{"AtomicNumber":63,"Symbol":"Eu","Element":"Europium","Origin of name[1]":"Europe","Group":null,"Period":6,"AtomicWeight":"151.964(1)2","Density":"5.243","MeltingPoint":"1099","BoilingPoint":"1802","Specific Heat":"0.182","Category":"Lan­thanide"},
{"AtomicNumber":64,"Symbol":"Gd","Element":"Gadolinium","Origin of name[1]":"Johan Gadolin, chemist, physicist and mineralogist","Group":null,"Period":6,"AtomicWeight":"157.25(3)2","Density":"7.895","MeltingPoint":"1585","BoilingPoint":"3546","Specific Heat":"0.236","Category":"Lan­thanide"},
{"AtomicNumber":65,"Symbol":"Tb","Element":"Terbium","Origin of name[1]":"Ytterby, Sweden","Group":null,"Period":6,"AtomicWeight":"158.92535(2)","Density":"8.229","MeltingPoint":"1629","BoilingPoint":"3503","Specific Heat":"0.182","Category":"Lan­thanide"},
{"AtomicNumber":66,"Symbol":"Dy","Element":"Dysprosium","Origin of name[1]":"the Greek 'dysprositos', meaninghard to get","Group":null,"Period":6,"AtomicWeight":"162.500(1)2","Density":"8.55","MeltingPoint":"1680","BoilingPoint":"2840","Specific Heat":"0.17","Category":"Lan­thanide"},
{"AtomicNumber":67,"Symbol":"Ho","Element":"Holmium","Origin of name[1]":"Stockholm, Sweden (with the Latin nameHolmia)","Group":null,"Period":6,"AtomicWeight":"164.93032(2)","Density":"8.795","MeltingPoint":"1734","BoilingPoint":"2993","Specific Heat":"0.165","Category":"Lan­thanide"},
{"AtomicNumber":68,"Symbol":"Er","Element":"Erbium","Origin of name[1]":"Ytterby, Sweden","Group":null,"Period":6,"AtomicWeight":"167.259(3)2","Density":"9.066","MeltingPoint":"1802","BoilingPoint":"3141","Specific Heat":"0.168","Category":"Lan­thanide"},
{"AtomicNumber":69,"Symbol":"Tm","Element":"Thulium","Origin of name[1]":"Thule, the ancient name for Scandinavia","Group":null,"Period":6,"AtomicWeight":"168.93421(2)","Density":"9.321","MeltingPoint":"1818","BoilingPoint":"2223","Specific Heat":"0.16","Category":"Lan­thanide"},
{"AtomicNumber":70,"Symbol":"Yb","Element":"Ytterbium","Origin of name[1]":"Ytterby, Sweden","Group":null,"Period":6,"AtomicWeight":"173.054(5)2","Density":"6.965","MeltingPoint":"1097","BoilingPoint":"1469","Specific Heat":"0.155","Category":"Lan­thanide"},
{"AtomicNumber":71,"Symbol":"Lu","Element":"Lutetium","Origin of name[1]":"Paris, France (with the Roman nameLutetia)","Group":3,"Period":6,"AtomicWeight":"174.9668(1)2","Density":"9.84","MeltingPoint":"1925","BoilingPoint":"3675","Specific Heat":"0.154","Category":"Lan­thanide"},
{"AtomicNumber":72,"Symbol":"Hf","Element":"Hafnium","Origin of name[1]":"Copenhagen, Denmark (with the Latin nameHafnia)","Group":4,"Period":6,"AtomicWeight":"178.49(2)","Density":"13.31","MeltingPoint":"2506","BoilingPoint":"4876","Specific Heat":"0.144","Category":"Transition metal"},
{"AtomicNumber":73,"Symbol":"Ta","Element":"Tantalum","Origin of name[1]":"KingTantalus, father of Niobe from Greek mythology","Group":5,"Period":6,"AtomicWeight":"180.94788(2)","Density":"16.654","MeltingPoint":"3290","BoilingPoint":"5731","Specific Heat":"0.14","Category":"Transition metal"},
{"AtomicNumber":74,"Symbol":"W","Element":"Tungsten","Origin of name[1]":"the Swedish 'tung sten' meaningheavy stone(W iswolfram, the old name of the tungsten mineral wolframite)[2]","Group":6,"Period":6,"AtomicWeight":"183.84(1)","Density":"19.25","MeltingPoint":"3695","BoilingPoint":"5828","Specific Heat":"0.132","Category":"Transition metal"},
{"AtomicNumber":75,"Symbol":"Re","Element":"Rhenium","Origin of name[1]":"Rhine, a river that flows from Grisonsin the easternSwiss Alpsto the North Sea coast in theNetherlands(with the Latin nameRhenia)","Group":7,"Period":6,"AtomicWeight":"186.207(1)","Density":"21.02","MeltingPoint":"3459","BoilingPoint":"5869","Specific Heat":"0.137","Category":"Transition metal"},
{"AtomicNumber":76,"Symbol":"Os","Element":"Osmium","Origin of name[1]":"the Greek 'osme', meaningsmell","Group":8,"Period":6,"AtomicWeight":"190.23(3)2","Density":"22.61","MeltingPoint":"3306","BoilingPoint":"5285","Specific Heat":"0.13","Category":"Transition metal"},
{"AtomicNumber":77,"Symbol":"Ir","Element":"Iridium","Origin of name[1]":"Iris, the Greek goddess of the rainbow","Group":9,"Period":6,"AtomicWeight":"192.217(3)","Density":"22.56","MeltingPoint":"2719","BoilingPoint":"4701","Specific Heat":"0.131","Category":"Transition metal"},
{"AtomicNumber":78,"Symbol":"Pt","Element":"Platinum","Origin of name[1]":"the Spanish'platina', meaning little silver","Group":10,"Period":6,"AtomicWeight":"195.084(9)","Density":"21.46","MeltingPoint":"2041.4[3]","BoilingPoint":"4098","Specific Heat":"0.133","Category":"Transition metal"},
{"AtomicNumber":79,"Symbol":"Au","Element":"Gold","Origin of name[1]":"the Anglo-Saxon wordgold (aurum in Latin, meaningglow of sunrise)[2]","Group":11,"Period":6,"AtomicWeight":"196.966569(4)","Density":"19.282","MeltingPoint":"1337.33[3]","BoilingPoint":"3129","Specific Heat":"0.129","Category":"Transition metal"},
{"AtomicNumber":80,"Symbol":"Hg","Element":"Mercury","Origin of name[1]":"Mercury, the first planet in the Solar System (Hg from former namehydrargyrum,from Greekhydr- water and argyrossilver)","Group":12,"Period":6,"AtomicWeight":"200.592(3)","Density":"13.5336","MeltingPoint":"234.43","BoilingPoint":"629.88","Specific Heat":"0.14","Category":"Transition metal"},
{"AtomicNumber":81,"Symbol":"Tl","Element":"Thallium","Origin of name[1]":"the Greek 'thallos', meaning a green twig","Group":13,"Period":6,"AtomicWeight":"204.389","Density":"11.85","MeltingPoint":"577","BoilingPoint":"1746","Specific Heat":"0.129","Category":"Poor metal"},
{"AtomicNumber":82,"Symbol":"Pb","Element":"Lead","Origin of name[1]":"the Anglo-Saxon lead(plumbum in Latin)[2]","Group":14,"Period":6,"AtomicWeight":"207.2(1)2 4","Density":"11.342","MeltingPoint":"600.61","BoilingPoint":"2022","Specific Heat":"0.129","Category":"Poor metal"},
{"AtomicNumber":83,"Symbol":"Bi","Element":"Bismuth","Origin of name[1]":"the German 'Bisemutum' a corruption of 'Weisse Masse' meaningwhite mass","Group":15,"Period":6,"AtomicWeight":"208.98040(1)1","Density":"9.807","MeltingPoint":"544.7","BoilingPoint":"1837","Specific Heat":"0.122","Category":"Poor metal"},
{"AtomicNumber":84,"Symbol":"Po","Element":"Polonium","Origin of name[1]":"Poland, the native country ofMarie Curie, who first isolated the element","Group":16,"Period":6,"AtomicWeight":"[209]1","Density":"9.32","MeltingPoint":"527","BoilingPoint":"1235","Specific Heat":"–","Category":"Poor metal"},
{"AtomicNumber":85,"Symbol":"At","Element":"Astatine","Origin of name[1]":"the Greek 'astatos', meaningunstable","Group":17,"Period":6,"AtomicWeight":"[210]1","Density":"7","MeltingPoint":"575","BoilingPoint":"610","Specific Heat":"–","Category":"Metalloid"},
{"AtomicNumber":86,"Symbol":"Rn","Element":"Radon","Origin of name[1]":"From radium, as it was first detected as an emission from radium during radioactive decay","Group":18,"Period":6,"AtomicWeight":"[222]1","Density":"0.00973","MeltingPoint":"202","BoilingPoint":"211.3","Specific Heat":"0.094","Category":"Noble gas"},
{"AtomicNumber":87,"Symbol":"Fr","Element":"Francium","Origin of name[1]":"France, where it was first discovered","Group":1,"Period":7,"AtomicWeight":"[223]1","Density":"1.87","MeltingPoint":"300","BoilingPoint":"950","Specific Heat":"–","Category":"Alkali metal"},
{"AtomicNumber":88,"Symbol":"Ra","Element":"Radium","Origin of name[1]":"the Latin 'radius', meaning ray","Group":2,"Period":7,"AtomicWeight":"[226]1","Density":"5.5","MeltingPoint":"973","BoilingPoint":"2010","Specific Heat":"0.094","Category":"Alkaline earth metal"},
{"AtomicNumber":89,"Symbol":"Ac","Element":"Actinium","Origin of name[1]":"the Greek 'actinos', meaning a ray","Group":null,"Period":7,"AtomicWeight":"[227]1","Density":"10.07","MeltingPoint":"1323","BoilingPoint":"3471","Specific Heat":"0.12","Category":"Actinide"},
{"AtomicNumber":90,"Symbol":"Th","Element":"Thorium","Origin of name[1]":"Thor, the Scandinavian god of thunder","Group":null,"Period":7,"AtomicWeight":"232.03806(2)12","Density":"11.72","MeltingPoint":"2115","BoilingPoint":"5061","Specific Heat":"0.113","Category":"Actinide"},
{"AtomicNumber":91,"Symbol":"Pa","Element":"Protactinium","Origin of name[1]":"the Greek 'protos', meaningfirst, as a prefix to the element actinium, which is produced through the radioactive decay of protactinium","Group":null,"Period":7,"AtomicWeight":"231.03588(2)1","Density":"15.37","MeltingPoint":"1841","BoilingPoint":"4300","Specific Heat":"–","Category":"Actinide"},
{"AtomicNumber":92,"Symbol":"U","Element":"Uranium","Origin of name[1]":"Uranus, the seventh planet in the Solar System","Group":null,"Period":7,"AtomicWeight":"238.02891(3)1","Density":"18.95","MeltingPoint":"1405.3","BoilingPoint":"4404","Specific Heat":"0.116","Category":"Actinide"},
{"AtomicNumber":93,"Symbol":"Np","Element":"Neptunium","Origin of name[1]":"Neptune, the eighth planet in the Solar System","Group":null,"Period":7,"AtomicWeight":"[237]1","Density":"20.45","MeltingPoint":"917","BoilingPoint":"4273","Specific Heat":"–","Category":"Actinide"},
{"AtomicNumber":94,"Symbol":"Pu","Element":"Plutonium","Origin of name[1]":"Pluto, a dwarf planet in the Solar System","Group":null,"Period":7,"AtomicWeight":"[244]1","Density":"19.84","MeltingPoint":"912.5","BoilingPoint":"3501","Specific Heat":"–","Category":"Actinide"},
{"AtomicNumber":95,"Symbol":"Am","Element":"Americium","Origin of name[1]":"Americas, the continent where the element was first synthesized","Group":null,"Period":7,"AtomicWeight":"[243]1","Density":"13.69","MeltingPoint":"1449","BoilingPoint":"2880","Specific Heat":"–","Category":"Actinide"},
{"AtomicNumber":96,"Symbol":"Cm","Element":"Curium","Origin of name[1]":"Pierre Curie, a physicist, and Marie Curie, a physicist and chemist","Group":null,"Period":7,"AtomicWeight":"[247]1","Density":"13.51","MeltingPoint":"1613","BoilingPoint":"3383","Specific Heat":"–","Category":"Actinide"},
{"AtomicNumber":97,"Symbol":"Bk","Element":"Berkelium","Origin of name[1]":"Berkeley, California, USA, where the element was first synthesized","Group":null,"Period":7,"AtomicWeight":"[247]1","Density":"14.79","MeltingPoint":"1259","BoilingPoint":"2900","Specific Heat":"–","Category":"Actinide"},
{"AtomicNumber":98,"Symbol":"Cf","Element":"Californium","Origin of name[1]":"State of California, USA, where the element was first synthesized","Group":null,"Period":7,"AtomicWeight":"[251]1","Density":"15.1","MeltingPoint":"1173","BoilingPoint":"(1743)11","Specific Heat":"–","Category":"Actinide"},
{"AtomicNumber":99,"Symbol":"Es","Element":"Einsteinium","Origin of name[1]":"Albert Einstein, physicist","Group":null,"Period":7,"AtomicWeight":"[252]1","Density":"8.84","MeltingPoint":"1133","BoilingPoint":"(1269)11","Specific Heat":"–","Category":"Actinide"},
{"AtomicNumber":100,"Symbol":"Fm","Element":"Fermium","Origin of name[1]":"Enrico Fermi, physicist","Group":null,"Period":7,"AtomicWeight":"[257]1","Density":"–","MeltingPoint":"(1125)11","BoilingPoint":"–","Specific Heat":"–","Category":"Actinide"},
{"AtomicNumber":101,"Symbol":"Md","Element":"Mendelevium","Origin of name[1]":"Dmitri Mendeleyev, chemist and inventor","Group":null,"Period":7,"AtomicWeight":"[258]1","Density":"–","MeltingPoint":"(1100)11","BoilingPoint":"–","Specific Heat":"–","Category":"Actinide"},
{"AtomicNumber":102,"Symbol":"No","Element":"Nobelium","Origin of name[1]":"Alfred Nobel, chemist, engineer, innovator, and armaments manufacturer","Group":null,"Period":7,"AtomicWeight":"[259]1","Density":"–","MeltingPoint":"(1100)11","BoilingPoint":"–","Specific Heat":"–","Category":"Actinide"},
{"AtomicNumber":103,"Symbol":"Lr","Element":"Lawrencium","Origin of name[1]":"Ernest O. Lawrence, physicist","Group":3,"Period":7,"AtomicWeight":"[262]1","Density":"–","MeltingPoint":"(1900)11","BoilingPoint":"–","Specific Heat":"–","Category":"Actinide"},
{"AtomicNumber":104,"Symbol":"Rf","Element":"Rutherfordium","Origin of name[1]":"Ernest Rutherford, chemist and physicist","Group":4,"Period":7,"AtomicWeight":"[267]1","Density":"(23.2)11","MeltingPoint":"(2400)11","BoilingPoint":"(5800)11","Specific Heat":"–","Category":"Transition metal"},
{"AtomicNumber":105,"Symbol":"Db","Element":"Dubnium","Origin of name[1]":"Dubna, Russia","Group":5,"Period":7,"AtomicWeight":"[268]1","Density":"(29.3)11","MeltingPoint":"–","BoilingPoint":"–","Specific Heat":"–","Category":"Transition metal"},
{"AtomicNumber":106,"Symbol":"Sg","Element":"Seaborgium","Origin of name[1]":"Glenn T. Seaborg, scientist","Group":6,"Period":7,"AtomicWeight":"[269]1","Density":"(35.0)11","MeltingPoint":"–","BoilingPoint":"–","Specific Heat":"–","Category":"Transition metal"},
{"AtomicNumber":107,"Symbol":"Bh","Element":"Bohrium","Origin of name[1]":"Niels Bohr, physicist","Group":7,"Period":7,"AtomicWeight":"[270]1","Density":"(37.1)11","MeltingPoint":"–","BoilingPoint":"–","Specific Heat":"–","Category":"Transition metal"},
{"AtomicNumber":108,"Symbol":"Hs","Element":"Hassium","Origin of name[1]":"Hesse, Germany, where the element was first synthesized","Group":8,"Period":7,"AtomicWeight":"[269]1","Density":"(40.7)11","MeltingPoint":"–","BoilingPoint":"–","Specific Heat":"–","Category":"Transition metal"},
{"AtomicNumber":109,"Symbol":"Mt","Element":"Meitnerium","Origin of name[1]":"Lise Meitner, physicist","Group":9,"Period":7,"AtomicWeight":"[278]1","Density":"(37.4)11","MeltingPoint":"–","BoilingPoint":"–","Specific Heat":"–","Category":""},
{"AtomicNumber":110,"Symbol":"Ds","Element":"Darmstadtium","Origin of name[1]":"Darmstadt, Germany, where the element was first synthesized","Group":10,"Period":7,"AtomicWeight":"[281]1","Density":"(34.8)11","MeltingPoint":"–","BoilingPoint":"–","Specific Heat":"–","Category":""},
{"AtomicNumber":111,"Symbol":"Rg","Element":"Roentgenium","Origin of name[1]":"Wilhelm Conrad Röntgen, physicist","Group":11,"Period":7,"AtomicWeight":"[281]1","Density":"(28.7)11","MeltingPoint":"–","BoilingPoint":"–","Specific Heat":"–","Category":""},
{"AtomicNumber":112,"Symbol":"Cn","Element":"Copernicium","Origin of name[1]":"Nicolaus Copernicus, astronomer","Group":12,"Period":7,"AtomicWeight":"[285]1","Density":"(23.7)11","MeltingPoint":"–","BoilingPoint":"357 12","Specific Heat":"–","Category":"Transition metal"},
{"AtomicNumber":113,"Symbol":"Uut","Element":"Ununtrium","Origin of name[1]":"IUPACsystematic element name","Group":13,"Period":7,"AtomicWeight":"[286]1","Density":"(16)11","MeltingPoint":"(700)11","BoilingPoint":"(1400)11","Specific Heat":"–","Category":""},
{"AtomicNumber":114,"Symbol":"Fl","Element":"Flerovium","Origin of name[1]":"Georgy Flyorov, physicist","Group":14,"Period":7,"AtomicWeight":"[289]1","Density":"(14)11","MeltingPoint":"(340)11","BoilingPoint":"(420)11","Specific Heat":"–","Category":""},
{"AtomicNumber":115,"Symbol":"Uup","Element":"Ununpentium","Origin of name[1]":"IUPACsystematic element name","Group":15,"Period":7,"AtomicWeight":"[288]1","Density":"(13.5)11","MeltingPoint":"(700)11","BoilingPoint":"(1400)11","Specific Heat":"–","Category":""},
{"AtomicNumber":116,"Symbol":"Lv","Element":"Livermorium","Origin of name[1]":"Lawrence Livermore National Laboratory(in Livermore, California) which collaborated with JINR on its synthesis","Group":16,"Period":7,"AtomicWeight":"[293]1","Density":"(12.9)11","MeltingPoint":"(708.5)11","BoilingPoint":"(1085)11","Specific Heat":"–","Category":""},
{"AtomicNumber":117,"Symbol":"Uus","Element":"Ununseptium","Origin of name[1]":"IUPACsystematic element name","Group":17,"Period":7,"AtomicWeight":"[294]1","Density":"(7.2)11","MeltingPoint":"(673)11","BoilingPoint":"(823)11","Specific Heat":"–","Category":""},
{"AtomicNumber":118,"Symbol":"Uuo","Element":"Ununoctium","Origin of name[1]":"IUPACsystematic element name","Group":18,"Period":7,"AtomicWeight":"[294]1","Density":"(5.0)11 13","MeltingPoint":"(258)11","BoilingPoint":"(263)11","Specific Heat":"–","Category":""},
{"AtomicNumber":0,"Symbol":"Uuo","Element":" ","Origin of name[1]":"IUPACsystematic element name","Group":18,"Period":7,"AtomicWeight":"[294]1","Density":"(5.0)11 13","MeltingPoint":"(258)11","BoilingPoint":"(263)11","Specific Heat":"–","Category":""}]}
